Standard name,MW,Chemical Formula,Chemical formula-NPH,Density (g/ml),Mass of std (mg) in 5 µL,Vol MeOH (µL)
  Acetic acid  ,60.05  ,  C2H4O2  ,C8H9N3O3,  1.05  ,  5.25  ,  5250  
  Propionic acid  ,74.08  ,  C3H6O2  ,C9H11N3O3  ,  0.99  ,  4.95  ,  4950  
  Butyric acid  ,88.11  ,  C4H8O2  ,C10H13N3O3  ,  0.96  ,  4.80  ,  4800  
  Iso-butyric acid   ,88.11  ,  C4H8O2  ,C10H13N3O3  ,  0.95  ,  4.75  ,  4750  
  Valeric acid  ,102.13  ,  C5H10O2  ,C11H15N3O3  ,  0.94  ,  4.70  ,  4700  
  Iso-valeric acid  ,102.13  ,  C5H10O2  ,C11H15N3O3  ,  0.93  ,  4.65  ,  4650  